ITEM: TIMESTEP
0
ITEM: NUMBER OF ATOMS
1
ITEM: BOX BOUNDS
0.0 1.0
0.0 1.0
0.0 1.0
ITEM: ATOMS
 1   1   0.5   0.5   0.5      1.0   0.0   0.0   0.0
